n -t * -s 0  -x 485.52529900000002 -y 12.719421000000001 -Z 0 -z 10.000000  -v circle -c green
n -t * -s 1  -x 522.21820100000002 -y 0 -Z 0 -z 10.000000  -v circle -c green
n -t * -s 2  -x 562.02062999999998 -y -5.6574669999999996 -Z 0 -z 10.000000  -v circle -c green
n -t * -s 3  -x 599.34362799999997 -y -1.983274 -Z 0 -z 10.000000  -v circle -c green
n -t * -s 4  -x 639.53118900000004 -y -1.4738929999999999 -Z 0 -z 10.000000  -v circle -c green
n -t * -s 5  -x 679.70538299999998 -y 13.536232999999999 -Z 0 -z 10.000000  -v circle -c green
n -t * -s 6  -x 578.09277299999997 -y 300.21606400000002 -Z 0 -z 10.000000  -v circle -c green
n -t * -s 7  -x 578.09277299999997 -y 400.731674 -Z 0 -z 10.000000  -v circle -c green
n -t * -s 8  -x 485.215576 -y 140.731674 -Z 0 -z 10.000000  -v circle -c green
n -t * -s 9  -x 650.21557600000006 -y 140.731674 -Z 0 -z 10.000000  -v circle -c green
V -t * -v 1.0a5 -a 0
W -t * -x 1500 -y 1500
A -t * -n 1 -p 0 -o 0xffffffff -c 31 -a 1
A -t * -h 1 -m 2147483647 -s 0
n -t 0 -s 0 -S DLABEL -l "L_U_Node" -L ""
n -t 0 -s 0 -S COLOR -c RED -o black -i RED -I black
n -t 0 -s 1 -S DLABEL -l "L_U_Node" -L ""
n -t 0 -s 1 -S COLOR -c RED -o black -i RED -I black
n -t 0 -s 2 -S DLABEL -l "L_U_Node" -L ""
n -t 0 -s 2 -S COLOR -c RED -o black -i RED -I black
n -t 0 -s 3 -S DLABEL -l "L_U_Node" -L ""
n -t 0 -s 3 -S COLOR -c RED -o black -i RED -I black
n -t 0 -s 4 -S DLABEL -l "L_U_Node" -L ""
n -t 0 -s 4 -S COLOR -c RED -o black -i RED -I black
n -t 0 -s 5 -S DLABEL -l "L_U_Node" -L ""
n -t 0 -s 5 -S COLOR -c RED -o black -i RED -I black
n -t 0 -s 6 -S DLABEL -l "Source" -L ""
n -t 0 -s 6 -S COLOR -c pink -o black -i pink -I black
n -t 0 -s 7 -S DLABEL -l "Repeater" -L ""
n -t 0 -s 7 -S COLOR -c blue -o black -i blue -I black
n -t 0 -s 8 -S DLABEL -l "AP_1" -L ""
n -t 0 -s 8 -S COLOR -c gold -o black -i gold -I black
n -t 0 -s 9 -S DLABEL -l "AP_2" -L ""
n -t 0 -s 9 -S COLOR -c gold -o black -i gold -I black
n -t 1.000000 -s 0 -x 485.525299 -y 12.719421 -U 29.999889 -V -0.081605 -T 8.815856
n -t 1.000000 -s 1 -x 522.218201 -y 0.000000 -U -29.999939 -V 0.060336 -T 16.573974
n -t 1.000000 -s 2 -x 562.020630 -y -5.657467 -U 29.629918 -V 4.697653 -T 9.719209
n -t 1.000000 -s 3 -x 599.343628 -y -1.983274 -U -29.987461 -V 0.867270 -T 13.817229
n -t 1.000000 -s 4 -x 639.531189 -y -1.473893 -U -29.886296 -V 2.609470 -T 19.725803
n -t 1.000000 -s 5 -x 679.705383 -y 13.536233 -U -29.999066 -V -0.236694 -T 6.490381
n -t 1 -s 0 -S COLOR -c green -o RED -i green -I RED
+ -t 1.000000000 -s 0 -d -1 -p tcp -e 40 -c 2 -a 0 -i 0 -k AGT 
- -t 1.000000000 -s 0 -d -1 -p tcp -e 40 -c 2 -a 0 -i 0 -k AGT
h -t 1.000000000 -s 0 -d -1 -p tcp -e 40 -c 2 -a 0 -i 0 -k AGT
+ -t 1.000665000 -s 0 -d -1 -p AODV -e 55 -c 2 -a 0 -i 0 -k MAC 
- -t 1.000665000 -s 0 -d -1 -p AODV -e 55 -c 2 -a 0 -i 0 -k MAC
h -t 1.000665000 -s 0 -d -1 -p AODV -e 55 -c 2 -a 0 -i 0 -k MAC
r -t 1.003257129 -s 1 -d -1 -p AODV -e 48 -c 2 -a 0 -i 0 -k MAC
r -t 1.003257262 -s 2 -d -1 -p AODV -e 48 -c 2 -a 0 -i 0 -k MAC
r -t 1.003257382 -s 3 -d -1 -p AODV -e 48 -c 2 -a 0 -i 0 -k MAC
r -t 1.003257427 -s 8 -d -1 -p AODV -e 48 -c 2 -a 0 -i 0 -k MAC
r -t 1.003257515 -s 4 -d -1 -p AODV -e 48 -c 2 -a 0 -i 0 -k MAC
r -t 1.003257647 -s 5 -d -1 -p AODV -e 48 -c 2 -a 0 -i 0 -k MAC
r -t 1.003257695 -s 9 -d -1 -p AODV -e 48 -c 2 -a 0 -i 0 -k MAC
+ -t 1.006999683 -s 8 -d -1 -p AODV -e 55 -c 2 -a 0 -i 0 -k MAC 
- -t 1.006999683 -s 8 -d -1 -p AODV -e 55 -c 2 -a 0 -i 0 -k MAC
h -t 1.006999683 -s 8 -d -1 -p AODV -e 55 -c 2 -a 0 -i 0 -k MAC
r -t 1.009592110 -s 0 -d -1 -p AODV -e 48 -c 2 -a 0 -i 0 -k MAC
r -t 1.009592168 -s 1 -d -1 -p AODV -e 48 -c 2 -a 0 -i 0 -k MAC
r -t 1.009592233 -s 9 -d -1 -p AODV -e 48 -c 2 -a 0 -i 0 -k MAC
r -t 1.009592234 -s 2 -d -1 -p AODV -e 48 -c 2 -a 0 -i 0 -k MAC
r -t 1.009592292 -s 3 -d -1 -p AODV -e 48 -c 2 -a 0 -i 0 -k MAC
r -t 1.009592298 -s 6 -d -1 -p AODV -e 48 -c 2 -a 0 -i 0 -k MAC
r -t 1.009592382 -s 4 -d -1 -p AODV -e 48 -c 2 -a 0 -i 0 -k MAC
r -t 1.009592457 -s 5 -d -1 -p AODV -e 48 -c 2 -a 0 -i 0 -k MAC
+ -t 1.010401137 -s 5 -d -1 -p AODV -e 55 -c 2 -a 0 -i 0 -k MAC 
- -t 1.010401137 -s 5 -d -1 -p AODV -e 55 -c 2 -a 0 -i 0 -k MAC
h -t 1.010401137 -s 5 -d -1 -p AODV -e 55 -c 2 -a 0 -i 0 -k MAC
+ -t 1.012778581 -s 4 -d -1 -p AODV -e 55 -c 2 -a 0 -i 0 -k MAC 
- -t 1.012778581 -s 4 -d -1 -p AODV -e 55 -c 2 -a 0 -i 0 -k MAC
h -t 1.012778581 -s 4 -d -1 -p AODV -e 55 -c 2 -a 0 -i 0 -k MAC
r -t 1.012993279 -s 4 -d -1 -p AODV -e 48 -c 2 -a 0 -i 0 -k MAC
r -t 1.012993409 -s 3 -d -1 -p AODV -e 48 -c 2 -a 0 -i 0 -k MAC
r -t 1.012993532 -s 2 -d -1 -p AODV -e 48 -c 2 -a 0 -i 0 -k MAC
r -t 1.012993572 -s 9 -d -1 -p AODV -e 48 -c 2 -a 0 -i 0 -k MAC
r -t 1.012993663 -s 1 -d -1 -p AODV -e 48 -c 2 -a 0 -i 0 -k MAC
r -t 1.012993782 -s 0 -d -1 -p AODV -e 48 -c 2 -a 0 -i 0 -k MAC
r -t 1.012993910 -s 8 -d -1 -p AODV -e 48 -c 2 -a 0 -i 0 -k MAC
r -t 1.015370715 -s 3 -d -1 -p AODV -e 48 -c 2 -a 0 -i 0 -k MAC
r -t 1.015370724 -s 5 -d -1 -p AODV -e 48 -c 2 -a 0 -i 0 -k MAC
r -t 1.015370837 -s 2 -d -1 -p AODV -e 48 -c 2 -a 0 -i 0 -k MAC
r -t 1.015370972 -s 1 -d -1 -p AODV -e 48 -c 2 -a 0 -i 0 -k MAC
r -t 1.015371056 -s 9 -d -1 -p AODV -e 48 -c 2 -a 0 -i 0 -k MAC
r -t 1.015371094 -s 0 -d -1 -p AODV -e 48 -c 2 -a 0 -i 0 -k MAC
r -t 1.015371279 -s 8 -d -1 -p AODV -e 48 -c 2 -a 0 -i 0 -k MAC
+ -t 1.016498014 -s 9 -d -1 -p AODV -e 55 -c 2 -a 0 -i 0 -k MAC 
- -t 1.016498014 -s 9 -d -1 -p AODV -e 55 -c 2 -a 0 -i 0 -k MAC
h -t 1.016498014 -s 9 -d -1 -p AODV -e 55 -c 2 -a 0 -i 0 -k MAC
r -t 1.019090449 -s 5 -d -1 -p AODV -e 48 -c 2 -a 0 -i 0 -k MAC
r -t 1.019090490 -s 4 -d -1 -p AODV -e 48 -c 2 -a 0 -i 0 -k MAC
r -t 1.019090520 -s 3 -d -1 -p AODV -e 48 -c 2 -a 0 -i 0 -k MAC
r -t 1.019090564 -s 8 -d -1 -p AODV -e 48 -c 2 -a 0 -i 0 -k MAC
r -t 1.019090583 -s 2 -d -1 -p AODV -e 48 -c 2 -a 0 -i 0 -k MAC
r -t 1.019090598 -s 6 -d -1 -p AODV -e 48 -c 2 -a 0 -i 0 -k MAC
r -t 1.019090649 -s 1 -d -1 -p AODV -e 48 -c 2 -a 0 -i 0 -k MAC
r -t 1.019090708 -s 0 -d -1 -p AODV -e 48 -c 2 -a 0 -i 0 -k MAC
+ -t 1.019302977 -s 3 -d -1 -p AODV -e 55 -c 2 -a 0 -i 0 -k MAC 
- -t 1.019302977 -s 3 -d -1 -p AODV -e 55 -c 2 -a 0 -i 0 -k MAC
h -t 1.019302977 -s 3 -d -1 -p AODV -e 55 -c 2 -a 0 -i 0 -k MAC
r -t 1.021895098 -s 2 -d -1 -p AODV -e 48 -c 2 -a 0 -i 0 -k MAC
r -t 1.021895111 -s 4 -d -1 -p AODV -e 48 -c 2 -a 0 -i 0 -k MAC
r -t 1.021895234 -s 1 -d -1 -p AODV -e 48 -c 2 -a 0 -i 0 -k MAC
r -t 1.021895250 -s 5 -d -1 -p AODV -e 48 -c 2 -a 0 -i 0 -k MAC
r -t 1.021895356 -s 0 -d -1 -p AODV -e 48 -c 2 -a 0 -i 0 -k MAC
r -t 1.021895483 -s 9 -d -1 -p AODV -e 48 -c 2 -a 0 -i 0 -k MAC
r -t 1.021895585 -s 8 -d -1 -p AODV -e 48 -c 2 -a 0 -i 0 -k MAC
+ -t 1.026583802 -s 1 -d -1 -p AODV -e 55 -c 2 -a 0 -i 0 -k MAC 
- -t 1.026583802 -s 1 -d -1 -p AODV -e 55 -c 2 -a 0 -i 0 -k MAC
h -t 1.026583802 -s 1 -d -1 -p AODV -e 55 -c 2 -a 0 -i 0 -k MAC
r -t 1.029175927 -s 0 -d -1 -p AODV -e 48 -c 2 -a 0 -i 0 -k MAC
r -t 1.029175941 -s 2 -d -1 -p AODV -e 48 -c 2 -a 0 -i 0 -k MAC
r -t 1.029176059 -s 3 -d -1 -p AODV -e 48 -c 2 -a 0 -i 0 -k MAC
r -t 1.029176193 -s 4 -d -1 -p AODV -e 48 -c 2 -a 0 -i 0 -k MAC
r -t 1.029176287 -s 8 -d -1 -p AODV -e 48 -c 2 -a 0 -i 0 -k MAC
r -t 1.029176329 -s 5 -d -1 -p AODV -e 48 -c 2 -a 0 -i 0 -k MAC
r -t 1.029176438 -s 9 -d -1 -p AODV -e 48 -c 2 -a 0 -i 0 -k MAC
+ -t 1.032948373 -s 6 -d -1 -p AODV -e 55 -c 2 -a 0 -i 0 -k MAC 
- -t 1.032948373 -s 6 -d -1 -p AODV -e 55 -c 2 -a 0 -i 0 -k MAC
h -t 1.032948373 -s 6 -d -1 -p AODV -e 55 -c 2 -a 0 -i 0 -k MAC
r -t 1.035540709 -s 7 -d -1 -p AODV -e 48 -c 2 -a 0 -i 0 -k MAC
r -t 1.035540957 -s 9 -d -1 -p AODV -e 48 -c 2 -a 0 -i 0 -k MAC
r -t 1.035540989 -s 8 -d -1 -p AODV -e 48 -c 2 -a 0 -i 0 -k MAC
+ -t 1.036210709 -s 7 -d -1 -p ARP -e 35 -c 2 -a 0 -i 0 -k MAC 
- -t 1.036210709 -s 7 -d -1 -p ARP -e 35 -c 2 -a 0 -i 0 -k MAC
h -t 1.036210709 -s 7 -d -1 -p ARP -e 35 -c 2 -a 0 -i 0 -k MAC
r -t 1.038163044 -s 6 -d -1 -p ARP -e 28 -c 2 -a 0 -i 0 -k MAC
+ -t 1.039448044 -s 6 -d -1 -p ARP -e 35 -c 2 -a 0 -i 0 -k MAC 
- -t 1.039448044 -s 6 -d -1 -p ARP -e 35 -c 2 -a 0 -i 0 -k MAC
h -t 1.039448044 -s 6 -d -1 -p ARP -e 35 -c 2 -a 0 -i 0 -k MAC
+ -t 1.040952379 -s 7 -d 6 -p ACK -e 5 -c 2 -a 0 -i 0 -k MAC 
- -t 1.040952379 -s 7 -d 6 -p ACK -e 5 -c 2 -a 0 -i 0 -k MAC
h -t 1.040952379 -s 7 -d 6 -p ACK -e 5 -c 2 -a 0 -i 0 -k MAC
r -t 1.041304714 -s 6 -d 6 -p ACK -e 5 -c 2 -a 0 -i 0 -k MAC
r -t 1.041944379 -s 7 -d -1 -p ARP -e 28 -c 2 -a 0 -i 0 -k MAC
+ -t 1.042909379 -s 7 -d 6 -p AODV -e 51 -c 2 -a 0 -i 0 -k MAC 
- -t 1.042909379 -s 7 -d 6 -p AODV -e 51 -c 2 -a 0 -i 0 -k MAC
h -t 1.042909379 -s 7 -d 6 -p AODV -e 51 -c 2 -a 0 -i 0 -k MAC
+ -t 1.044925714 -s 6 -d 7 -p ACK -e 5 -c 2 -a 0 -i 0 -k MAC 
- -t 1.044925714 -s 6 -d 7 -p ACK -e 5 -c 2 -a 0 -i 0 -k MAC
h -t 1.044925714 -s 6 -d 7 -p ACK -e 5 -c 2 -a 0 -i 0 -k MAC
r -t 1.045278049 -s 7 -d 7 -p ACK -e 5 -c 2 -a 0 -i 0 -k MAC
r -t 1.045917714 -s 6 -d 6 -p AODV -e 44 -c 2 -a 0 -i 0 -k MAC
+ -t 1.048187714 -s 6 -d -1 -p ARP -e 35 -c 2 -a 0 -i 0 -k MAC 
- -t 1.048187714 -s 6 -d -1 -p ARP -e 35 -c 2 -a 0 -i 0 -k MAC
h -t 1.048187714 -s 6 -d -1 -p ARP -e 35 -c 2 -a 0 -i 0 -k MAC
r -t 1.050140049 -s 7 -d -1 -p ARP -e 28 -c 2 -a 0 -i 0 -k MAC
r -t 1.050140297 -s 9 -d -1 -p ARP -e 28 -c 2 -a 0 -i 0 -k MAC
r -t 1.050140329 -s 8 -d -1 -p ARP -e 28 -c 2 -a 0 -i 0 -k MAC
+ -t 1.052065329 -s 8 -d -1 -p ARP -e 35 -c 2 -a 0 -i 0 -k MAC 
- -t 1.052065329 -s 8 -d -1 -p ARP -e 35 -c 2 -a 0 -i 0 -k MAC
h -t 1.052065329 -s 8 -d -1 -p ARP -e 35 -c 2 -a 0 -i 0 -k MAC
+ -t 1.053569944 -s 6 -d 8 -p ACK -e 5 -c 2 -a 0 -i 0 -k MAC 
- -t 1.053569944 -s 6 -d 8 -p ACK -e 5 -c 2 -a 0 -i 0 -k MAC
h -t 1.053569944 -s 6 -d 8 -p ACK -e 5 -c 2 -a 0 -i 0 -k MAC
r -t 1.053922559 -s 8 -d 8 -p ACK -e 5 -c 2 -a 0 -i 0 -k MAC
r -t 1.054561944 -s 6 -d -1 -p ARP -e 28 -c 2 -a 0 -i 0 -k MAC
+ -t 1.056486944 -s 6 -d 8 -p AODV -e 51 -c 2 -a 0 -i 0 -k MAC 
- -t 1.056486944 -s 6 -d 8 -p AODV -e 51 -c 2 -a 0 -i 0 -k MAC
h -t 1.056486944 -s 6 -d 8 -p AODV -e 51 -c 2 -a 0 -i 0 -k MAC
+ -t 1.058503559 -s 8 -d 6 -p ACK -e 5 -c 2 -a 0 -i 0 -k MAC 
- -t 1.058503559 -s 8 -d 6 -p ACK -e 5 -c 2 -a 0 -i 0 -k MAC
h -t 1.058503559 -s 8 -d 6 -p ACK -e 5 -c 2 -a 0 -i 0 -k MAC
r -t 1.058856174 -s 6 -d 6 -p ACK -e 5 -c 2 -a 0 -i 0 -k MAC
r -t 1.059495559 -s 8 -d 8 -p AODV -e 44 -c 2 -a 0 -i 0 -k MAC
+ -t 1.062085559 -s 8 -d -1 -p ARP -e 35 -c 2 -a 0 -i 0 -k MAC 
- -t 1.062085559 -s 8 -d -1 -p ARP -e 35 -c 2 -a 0 -i 0 -k MAC
h -t 1.062085559 -s 8 -d -1 -p ARP -e 35 -c 2 -a 0 -i 0 -k MAC
r -t 1.064037986 -s 0 -d -1 -p ARP -e 28 -c 2 -a 0 -i 0 -k MAC
r -t 1.064038043 -s 1 -d -1 -p ARP -e 28 -c 2 -a 0 -i 0 -k MAC
r -t 1.064038109 -s 9 -d -1 -p ARP -e 28 -c 2 -a 0 -i 0 -k MAC
r -t 1.064038112 -s 2 -d -1 -p ARP -e 28 -c 2 -a 0 -i 0 -k MAC
r -t 1.064038164 -s 3 -d -1 -p ARP -e 28 -c 2 -a 0 -i 0 -k MAC
r -t 1.064038174 -s 6 -d -1 -p ARP -e 28 -c 2 -a 0 -i 0 -k MAC
r -t 1.064038254 -s 4 -d -1 -p ARP -e 28 -c 2 -a 0 -i 0 -k MAC
r -t 1.064038329 -s 5 -d -1 -p ARP -e 28 -c 2 -a 0 -i 0 -k MAC
+ -t 1.064362986 -s 0 -d -1 -p ARP -e 35 -c 2 -a 0 -i 0 -k MAC 
- -t 1.064362986 -s 0 -d -1 -p ARP -e 35 -c 2 -a 0 -i 0 -k MAC
h -t 1.064362986 -s 0 -d -1 -p ARP -e 35 -c 2 -a 0 -i 0 -k MAC
+ -t 1.065867413 -s 8 -d 0 -p ACK -e 5 -c 2 -a 0 -i 0 -k MAC 
- -t 1.065867413 -s 8 -d 0 -p ACK -e 5 -c 2 -a 0 -i 0 -k MAC
h -t 1.065867413 -s 8 -d 0 -p ACK -e 5 -c 2 -a 0 -i 0 -k MAC
r -t 1.066219840 -s 0 -d 0 -p ACK -e 5 -c 2 -a 0 -i 0 -k MAC
r -t 1.066859413 -s 8 -d -1 -p ARP -e 28 -c 2 -a 0 -i 0 -k MAC
+ -t 1.069104413 -s 8 -d 0 -p AODV -e 51 -c 2 -a 0 -i 0 -k MAC 
- -t 1.069104413 -s 8 -d 0 -p AODV -e 51 -c 2 -a 0 -i 0 -k MAC
h -t 1.069104413 -s 8 -d 0 -p AODV -e 51 -c 2 -a 0 -i 0 -k MAC
+ -t 1.071120840 -s 0 -d 8 -p ACK -e 5 -c 2 -a 0 -i 0 -k MAC 
- -t 1.071120840 -s 0 -d 8 -p ACK -e 5 -c 2 -a 0 -i 0 -k MAC
h -t 1.071120840 -s 0 -d 8 -p ACK -e 5 -c 2 -a 0 -i 0 -k MAC
r -t 1.071473266 -s 8 -d 8 -p ACK -e 5 -c 2 -a 0 -i 0 -k MAC
r -t 1.072112840 -s 0 -d 0 -p AODV -e 44 -c 2 -a 0 -i 0 -k MAC
+ -t 1.073442840 -s 0 -d 8 -p tcp -e 67 -c 2 -a 0 -i 0 -k MAC 
- -t 1.073442840 -s 0 -d 8 -p tcp -e 67 -c 2 -a 0 -i 0 -k MAC
h -t 1.073442840 -s 0 -d 8 -p tcp -e 67 -c 2 -a 0 -i 0 -k MAC
+ -t 1.075971266 -s 8 -d 0 -p ACK -e 5 -c 2 -a 0 -i 0 -k MAC 
- -t 1.075971266 -s 8 -d 0 -p ACK -e 5 -c 2 -a 0 -i 0 -k MAC
h -t 1.075971266 -s 8 -d 0 -p ACK -e 5 -c 2 -a 0 -i 0 -k MAC
r -t 1.076323693 -s 0 -d 0 -p ACK -e 5 -c 2 -a 0 -i 0 -k MAC
r -t 1.076963266 -s 8 -d 8 -p tcp -e 60 -c 2 -a 0 -i 0 -k MAC
+ -t 1.078613266 -s 8 -d 6 -p tcp -e 67 -c 2 -a 0 -i 0 -k MAC 
- -t 1.078613266 -s 8 -d 6 -p tcp -e 67 -c 2 -a 0 -i 0 -k MAC
h -t 1.078613266 -s 8 -d 6 -p tcp -e 67 -c 2 -a 0 -i 0 -k MAC
+ -t 1.081141882 -s 6 -d 8 -p ACK -e 5 -c 2 -a 0 -i 0 -k MAC 
- -t 1.081141882 -s 6 -d 8 -p ACK -e 5 -c 2 -a 0 -i 0 -k MAC
h -t 1.081141882 -s 6 -d 8 -p ACK -e 5 -c 2 -a 0 -i 0 -k MAC
r -t 1.081494497 -s 8 -d 8 -p ACK -e 5 -c 2 -a 0 -i 0 -k MAC
r -t 1.082133882 -s 6 -d 6 -p tcp -e 60 -c 2 -a 0 -i 0 -k MAC
+ -t 1.082823882 -s 6 -d 7 -p tcp -e 67 -c 2 -a 0 -i 0 -k MAC 
- -t 1.082823882 -s 6 -d 7 -p tcp -e 67 -c 2 -a 0 -i 0 -k MAC
h -t 1.082823882 -s 6 -d 7 -p tcp -e 67 -c 2 -a 0 -i 0 -k MAC
+ -t 1.085352217 -s 7 -d 6 -p ACK -e 5 -c 2 -a 0 -i 0 -k MAC 
- -t 1.085352217 -s 7 -d 6 -p ACK -e 5 -c 2 -a 0 -i 0 -k MAC
h -t 1.085352217 -s 7 -d 6 -p ACK -e 5 -c 2 -a 0 -i 0 -k MAC
r -t 1.085704552 -s 6 -d 6 -p ACK -e 5 -c 2 -a 0 -i 0 -k MAC
r -t 1.086344217 -s 7 -d 7 -p tcp -e 60 -c 2 -a 0 -i 0 -k MAC
r -t 1.086369217 -s 7 -d 7 -p tcp -e 60 -c 2 -a 0 -i 0 -k AGT
+ -t 1.086369217 -s 7 -d -1 -p ack -e 40 -c 2 -a 0 -i 1 -k AGT 
- -t 1.086369217 -s 7 -d -1 -p ack -e 40 -c 2 -a 0 -i 1 -k AGT
h -t 1.086369217 -s 7 -d -1 -p ack -e 40 -c 2 -a 0 -i 1 -k AGT
+ -t 1.088634217 -s 7 -d 6 -p ack -e 67 -c 2 -a 0 -i 1 -k MAC 
- -t 1.088634217 -s 7 -d 6 -p ack -e 67 -c 2 -a 0 -i 1 -k MAC
h -t 1.088634217 -s 7 -d 6 -p ack -e 67 -c 2 -a 0 -i 1 -k MAC
+ -t 1.091162552 -s 6 -d 7 -p ACK -e 5 -c 2 -a 0 -i 1 -k MAC 
- -t 1.091162552 -s 6 -d 7 -p ACK -e 5 -c 2 -a 0 -i 1 -k MAC
h -t 1.091162552 -s 6 -d 7 -p ACK -e 5 -c 2 -a 0 -i 1 -k MAC
r -t 1.091514887 -s 7 -d 7 -p ACK -e 5 -c 2 -a 0 -i 1 -k MAC
r -t 1.092154552 -s 6 -d 6 -p ack -e 60 -c 2 -a 0 -i 1 -k MAC
+ -t 1.093164552 -s 6 -d 8 -p ack -e 67 -c 2 -a 0 -i 1 -k MAC 
- -t 1.093164552 -s 6 -d 8 -p ack -e 67 -c 2 -a 0 -i 1 -k MAC
h -t 1.093164552 -s 6 -d 8 -p ack -e 67 -c 2 -a 0 -i 1 -k MAC
+ -t 1.095693167 -s 8 -d 6 -p ACK -e 5 -c 2 -a 0 -i 1 -k MAC 
- -t 1.095693167 -s 8 -d 6 -p ACK -e 5 -c 2 -a 0 -i 1 -k MAC
h -t 1.095693167 -s 8 -d 6 -p ACK -e 5 -c 2 -a 0 -i 1 -k MAC
r -t 1.096045782 -s 6 -d 6 -p ACK -e 5 -c 2 -a 0 -i 1 -k MAC
r -t 1.096685167 -s 8 -d 8 -p ack -e 60 -c 2 -a 0 -i 1 -k MAC
+ -t 1.097055167 -s 8 -d 0 -p ack -e 67 -c 2 -a 0 -i 1 -k MAC 
- -t 1.097055167 -s 8 -d 0 -p ack -e 67 -c 2 -a 0 -i 1 -k MAC
h -t 1.097055167 -s 8 -d 0 -p ack -e 67 -c 2 -a 0 -i 1 -k MAC
+ -t 1.099583594 -s 0 -d 8 -p ACK -e 5 -c 2 -a 0 -i 1 -k MAC 
- -t 1.099583594 -s 0 -d 8 -p ACK -e 5 -c 2 -a 0 -i 1 -k MAC
h -t 1.099583594 -s 0 -d 8 -p ACK -e 5 -c 2 -a 0 -i 1 -k MAC
r -t 1.099936021 -s 8 -d 8 -p ACK -e 5 -c 2 -a 0 -i 1 -k MAC
r -t 1.100575594 -s 0 -d 0 -p ack -e 60 -c 2 -a 0 -i 1 -k MAC
r -t 1.100600594 -s 0 -d 0 -p ack -e 60 -c 2 -a 0 -i 1 -k AGT
+ -t 1.100600594 -s 0 -d -1 -p tcp -e 592 -c 2 -a 0 -i 2 -k AGT 
- -t 1.100600594 -s 0 -d -1 -p tcp -e 592 -c 2 -a 0 -i 2 -k AGT
h -t 1.100600594 -s 0 -d -1 -p tcp -e 592 -c 2 -a 0 -i 2 -k AGT
+ -t 1.100600594 -s 0 -d -1 -p tcp -e 592 -c 2 -a 0 -i 3 -k AGT 
- -t 1.100600594 -s 0 -d -1 -p tcp -e 592 -c 2 -a 0 -i 3 -k AGT
h -t 1.100600594 -s 0 -d -1 -p tcp -e 592 -c 2 -a 0 -i 3 -k AGT
+ -t 1.102225594 -s 0 -d 8 -p tcp -e 107 -c 2 -a 0 -i 2 -k MAC 
- -t 1.102225594 -s 0 -d 8 -p tcp -e 107 -c 2 -a 0 -i 2 -k MAC
h -t 1.102225594 -s 0 -d 8 -p tcp -e 107 -c 2 -a 0 -i 2 -k MAC
+ -t 1.106034021 -s 8 -d 0 -p ACK -e 5 -c 2 -a 0 -i 2 -k MAC 
- -t 1.106034021 -s 8 -d 0 -p ACK -e 5 -c 2 -a 0 -i 2 -k MAC
h -t 1.106034021 -s 8 -d 0 -p ACK -e 5 -c 2 -a 0 -i 2 -k MAC
r -t 1.106386448 -s 0 -d 0 -p ACK -e 5 -c 2 -a 0 -i 2 -k MAC
+ -t 1.106706448 -s 0 -d 8 -p tcp -e 107 -c 2 -a 0 -i 3 -k MAC 
- -t 1.106706448 -s 0 -d 8 -p tcp -e 107 -c 2 -a 0 -i 3 -k MAC
h -t 1.106706448 -s 0 -d 8 -p tcp -e 107 -c 2 -a 0 -i 3 -k MAC
r -t 1.107026021 -s 8 -d 8 -p tcp -e 100 -c 2 -a 0 -i 2 -k MAC
+ -t 1.110514874 -s 8 -d 0 -p ACK -e 5 -c 2 -a 0 -i 3 -k MAC 
- -t 1.110514874 -s 8 -d 0 -p ACK -e 5 -c 2 -a 0 -i 3 -k MAC
h -t 1.110514874 -s 8 -d 0 -p ACK -e 5 -c 2 -a 0 -i 3 -k MAC
r -t 1.110867301 -s 0 -d 0 -p ACK -e 5 -c 2 -a 0 -i 3 -k MAC
r -t 1.111506874 -s 8 -d 8 -p tcp -e 100 -c 2 -a 0 -i 3 -k MAC
+ -t 1.111826874 -s 8 -d 6 -p tcp -e 107 -c 2 -a 0 -i 2 -k MAC 
- -t 1.111826874 -s 8 -d 6 -p tcp -e 107 -c 2 -a 0 -i 2 -k MAC
h -t 1.111826874 -s 8 -d 6 -p tcp -e 107 -c 2 -a 0 -i 2 -k MAC
+ -t 1.115635490 -s 6 -d 8 -p ACK -e 5 -c 2 -a 0 -i 2 -k MAC 
- -t 1.115635490 -s 6 -d 8 -p ACK -e 5 -c 2 -a 0 -i 2 -k MAC
h -t 1.115635490 -s 6 -d 8 -p ACK -e 5 -c 2 -a 0 -i 2 -k MAC
r -t 1.115988105 -s 8 -d 8 -p ACK -e 5 -c 2 -a 0 -i 2 -k MAC
r -t 1.116627490 -s 6 -d 6 -p tcp -e 100 -c 2 -a 0 -i 2 -k MAC
+ -t 1.118228105 -s 8 -d 6 -p tcp -e 107 -c 2 -a 0 -i 3 -k MAC 
- -t 1.118228105 -s 8 -d 6 -p tcp -e 107 -c 2 -a 0 -i 3 -k MAC
h -t 1.118228105 -s 8 -d 6 -p tcp -e 107 -c 2 -a 0 -i 3 -k MAC
+ -t 1.122036720 -s 6 -d 8 -p ACK -e 5 -c 2 -a 0 -i 3 -k MAC 
- -t 1.122036720 -s 6 -d 8 -p ACK -e 5 -c 2 -a 0 -i 3 -k MAC
h -t 1.122036720 -s 6 -d 8 -p ACK -e 5 -c 2 -a 0 -i 3 -k MAC
r -t 1.122389335 -s 8 -d 8 -p ACK -e 5 -c 2 -a 0 -i 3 -k MAC
r -t 1.123028720 -s 6 -d 6 -p tcp -e 100 -c 2 -a 0 -i 3 -k MAC
+ -t 1.123988720 -s 6 -d 7 -p tcp -e 107 -c 2 -a 0 -i 2 -k MAC 
- -t 1.123988720 -s 6 -d 7 -p tcp -e 107 -c 2 -a 0 -i 2 -k MAC
h -t 1.123988720 -s 6 -d 7 -p tcp -e 107 -c 2 -a 0 -i 2 -k MAC
+ -t 1.127797055 -s 7 -d 6 -p ACK -e 5 -c 2 -a 0 -i 2 -k MAC 
- -t 1.127797055 -s 7 -d 6 -p ACK -e 5 -c 2 -a 0 -i 2 -k MAC
h -t 1.127797055 -s 7 -d 6 -p ACK -e 5 -c 2 -a 0 -i 2 -k MAC
r -t 1.128149390 -s 6 -d 6 -p ACK -e 5 -c 2 -a 0 -i 2 -k MAC
r -t 1.128789055 -s 7 -d 7 -p tcp -e 100 -c 2 -a 0 -i 2 -k MAC
r -t 1.128814055 -s 7 -d 7 -p tcp -e 100 -c 2 -a 0 -i 2 -k AGT
+ -t 1.128814055 -s 7 -d -1 -p ack -e 40 -c 2 -a 0 -i 4 -k AGT 
- -t 1.128814055 -s 7 -d -1 -p ack -e 40 -c 2 -a 0 -i 4 -k AGT
h -t 1.128814055 -s 7 -d -1 -p ack -e 40 -c 2 -a 0 -i 4 -k AGT
+ -t 1.129749390 -s 6 -d 7 -p tcp -e 107 -c 2 -a 0 -i 3 -k MAC 
- -t 1.129749390 -s 6 -d 7 -p tcp -e 107 -c 2 -a 0 -i 3 -k MAC
h -t 1.129749390 -s 6 -d 7 -p tcp -e 107 -c 2 -a 0 -i 3 -k MAC
+ -t 1.133557725 -s 7 -d 6 -p ACK -e 5 -c 2 -a 0 -i 3 -k MAC 
- -t 1.133557725 -s 7 -d 6 -p ACK -e 5 -c 2 -a 0 -i 3 -k MAC
h -t 1.133557725 -s 7 -d 6 -p ACK -e 5 -c 2 -a 0 -i 3 -k MAC
r -t 1.133910060 -s 6 -d 6 -p ACK -e 5 -c 2 -a 0 -i 3 -k MAC
r -t 1.134549725 -s 7 -d 7 -p tcp -e 100 -c 2 -a 0 -i 3 -k MAC
+ -t 1.134549725 -s 7 -d 6 -p ack -e 67 -c 2 -a 0 -i 4 -k MAC 
- -t 1.134549725 -s 7 -d 6 -p ack -e 67 -c 2 -a 0 -i 4 -k MAC
h -t 1.134549725 -s 7 -d 6 -p ack -e 67 -c 2 -a 0 -i 4 -k MAC
r -t 1.134574725 -s 7 -d 7 -p tcp -e 100 -c 2 -a 0 -i 3 -k AGT
+ -t 1.134574725 -s 7 -d -1 -p ack -e 40 -c 2 -a 0 -i 5 -k AGT 
- -t 1.134574725 -s 7 -d -1 -p ack -e 40 -c 2 -a 0 -i 5 -k AGT
h -t 1.134574725 -s 7 -d -1 -p ack -e 40 -c 2 -a 0 -i 5 -k AGT
+ -t 1.137078060 -s 6 -d 7 -p ACK -e 5 -c 2 -a 0 -i 4 -k MAC 
- -t 1.137078060 -s 6 -d 7 -p ACK -e 5 -c 2 -a 0 -i 4 -k MAC
h -t 1.137078060 -s 6 -d 7 -p ACK -e 5 -c 2 -a 0 -i 4 -k MAC
r -t 1.137430395 -s 7 -d 7 -p ACK -e 5 -c 2 -a 0 -i 4 -k MAC
r -t 1.138070060 -s 6 -d 6 -p ack -e 60 -c 2 -a 0 -i 4 -k MAC
+ -t 1.138760060 -s 6 -d 8 -p ack -e 67 -c 2 -a 0 -i 4 -k MAC 
- -t 1.138760060 -s 6 -d 8 -p ack -e 67 -c 2 -a 0 -i 4 -k MAC
h -t 1.138760060 -s 6 -d 8 -p ack -e 67 -c 2 -a 0 -i 4 -k MAC
+ -t 1.141288675 -s 8 -d 6 -p ACK -e 5 -c 2 -a 0 -i 4 -k MAC 
- -t 1.141288675 -s 8 -d 6 -p ACK -e 5 -c 2 -a 0 -i 4 -k MAC
h -t 1.141288675 -s 8 -d 6 -p ACK -e 5 -c 2 -a 0 -i 4 -k MAC
r -t 1.141641291 -s 6 -d 6 -p ACK -e 5 -c 2 -a 0 -i 4 -k MAC
r -t 1.142280675 -s 8 -d 8 -p ack -e 60 -c 2 -a 0 -i 4 -k MAC
+ -t 1.143930675 -s 8 -d 0 -p ack -e 67 -c 2 -a 0 -i 4 -k MAC 
- -t 1.143930675 -s 8 -d 0 -p ack -e 67 -c 2 -a 0 -i 4 -k MAC
h -t 1.143930675 -s 8 -d 0 -p ack -e 67 -c 2 -a 0 -i 4 -k MAC
+ -t 1.146459102 -s 0 -d 8 -p ACK -e 5 -c 2 -a 0 -i 4 -k MAC 
- -t 1.146459102 -s 0 -d 8 -p ACK -e 5 -c 2 -a 0 -i 4 -k MAC
h -t 1.146459102 -s 0 -d 8 -p ACK -e 5 -c 2 -a 0 -i 4 -k MAC
r -t 1.146811529 -s 8 -d 8 -p ACK -e 5 -c 2 -a 0 -i 4 -k MAC
r -t 1.147451102 -s 0 -d 0 -p ack -e 60 -c 2 -a 0 -i 4 -k MAC
r -t 1.147476102 -s 0 -d 0 -p ack -e 60 -c 2 -a 0 -i 4 -k AGT
+ -t 1.147476102 -s 0 -d -1 -p tcp -e 592 -c 2 -a 0 -i 6 -k AGT 
- -t 1.147476102 -s 0 -d -1 -p tcp -e 592 -c 2 -a 0 -i 6 -k AGT
h -t 1.147476102 -s 0 -d -1 -p tcp -e 592 -c 2 -a 0 -i 6 -k AGT
+ -t 1.147476102 -s 0 -d -1 -p tcp -e 592 -c 2 -a 0 -i 7 -k AGT 
- -t 1.147476102 -s 0 -d -1 -p tcp -e 592 -c 2 -a 0 -i 7 -k AGT
h -t 1.147476102 -s 0 -d -1 -p tcp -e 592 -c 2 -a 0 -i 7 -k AGT
+ -t 1.149741102 -s 0 -d 8 -p tcp -e 107 -c 2 -a 0 -i 6 -k MAC 
- -t 1.149741102 -s 0 -d 8 -p tcp -e 107 -c 2 -a 0 -i 6 -k MAC
h -t 1.149741102 -s 0 -d 8 -p tcp -e 107 -c 2 -a 0 -i 6 -k MAC
+ -t 1.153549530 -s 8 -d 0 -p ACK -e 5 -c 2 -a 0 -i 6 -k MAC 
- -t 1.153549530 -s 8 -d 0 -p ACK -e 5 -c 2 -a 0 -i 6 -k MAC
h -t 1.153549530 -s 8 -d 0 -p ACK -e 5 -c 2 -a 0 -i 6 -k MAC
r -t 1.153901957 -s 0 -d 0 -p ACK -e 5 -c 2 -a 0 -i 6 -k MAC
r -t 1.154541530 -s 8 -d 8 -p tcp -e 100 -c 2 -a 0 -i 6 -k MAC
+ -t 1.154911530 -s 8 -d 6 -p tcp -e 107 -c 2 -a 0 -i 6 -k MAC 
- -t 1.154911530 -s 8 -d 6 -p tcp -e 107 -c 2 -a 0 -i 6 -k MAC
h -t 1.154911530 -s 8 -d 6 -p tcp -e 107 -c 2 -a 0 -i 6 -k MAC
+ -t 1.158720145 -s 6 -d 8 -p ACK -e 5 -c 2 -a 0 -i 6 -k MAC 
- -t 1.158720145 -s 6 -d 8 -p ACK -e 5 -c 2 -a 0 -i 6 -k MAC
h -t 1.158720145 -s 6 -d 8 -p ACK -e 5 -c 2 -a 0 -i 6 -k MAC
r -t 1.159072760 -s 8 -d 8 -p ACK -e 5 -c 2 -a 0 -i 6 -k MAC
r -t 1.159712145 -s 6 -d 6 -p tcp -e 100 -c 2 -a 0 -i 6 -k MAC
+ -t 1.160662395 -s 7 -d 6 -p ack -e 67 -c 2 -a 0 -i 5 -k MAC 
- -t 1.160662395 -s 7 -d 6 -p ack -e 67 -c 2 -a 0 -i 5 -k MAC
h -t 1.160662395 -s 7 -d 6 -p ack -e 67 -c 2 -a 0 -i 5 -k MAC
+ -t 1.160722145 -s 6 -d 7 -p tcp -e 107 -c 2 -a 0 -i 6 -k MAC 
- -t 1.160722145 -s 6 -d 7 -p tcp -e 107 -c 2 -a 0 -i 6 -k MAC
h -t 1.160722145 -s 6 -d 7 -p tcp -e 107 -c 2 -a 0 -i 6 -k MAC
+ -t 1.165613957 -s 0 -d 8 -p tcp -e 107 -c 2 -a 0 -i 7 -k MAC 
- -t 1.165613957 -s 0 -d 8 -p tcp -e 107 -c 2 -a 0 -i 7 -k MAC
h -t 1.165613957 -s 0 -d 8 -p tcp -e 107 -c 2 -a 0 -i 7 -k MAC
+ -t 1.169422384 -s 8 -d 0 -p ACK -e 5 -c 2 -a 0 -i 7 -k MAC 
- -t 1.169422384 -s 8 -d 0 -p ACK -e 5 -c 2 -a 0 -i 7 -k MAC
h -t 1.169422384 -s 8 -d 0 -p ACK -e 5 -c 2 -a 0 -i 7 -k MAC
r -t 1.169774811 -s 0 -d 0 -p ACK -e 5 -c 2 -a 0 -i 7 -k MAC
r -t 1.170414384 -s 8 -d 8 -p tcp -e 100 -c 2 -a 0 -i 7 -k MAC
+ -t 1.171730145 -s 6 -d 7 -p tcp -e 107 -c 2 -a 0 -i 6 -k MAC 
- -t 1.171730145 -s 6 -d 7 -p tcp -e 107 -c 2 -a 0 -i 6 -k MAC
h -t 1.171730145 -s 6 -d 7 -p tcp -e 107 -c 2 -a 0 -i 6 -k MAC
+ -t 1.171744384 -s 8 -d 6 -p tcp -e 107 -c 2 -a 0 -i 7 -k MAC 
- -t 1.171744384 -s 8 -d 6 -p tcp -e 107 -c 2 -a 0 -i 7 -k MAC
h -t 1.171744384 -s 8 -d 6 -p tcp -e 107 -c 2 -a 0 -i 7 -k MAC
+ -t 1.171798395 -s 7 -d 6 -p ack -e 67 -c 2 -a 0 -i 5 -k MAC 
- -t 1.171798395 -s 7 -d 6 -p ack -e 67 -c 2 -a 0 -i 5 -k MAC
h -t 1.171798395 -s 7 -d 6 -p ack -e 67 -c 2 -a 0 -i 5 -k MAC
+ -t 1.177558395 -s 7 -d 6 -p ack -e 67 -c 2 -a 0 -i 5 -k MAC 
- -t 1.177558395 -s 7 -d 6 -p ack -e 67 -c 2 -a 0 -i 5 -k MAC
h -t 1.177558395 -s 7 -d 6 -p ack -e 67 -c 2 -a 0 -i 5 -k MAC
+ -t 1.180086730 -s 6 -d 7 -p ACK -e 5 -c 2 -a 0 -i 5 -k MAC 
- -t 1.180086730 -s 6 -d 7 -p ACK -e 5 -c 2 -a 0 -i 5 -k MAC
h -t 1.180086730 -s 6 -d 7 -p ACK -e 5 -c 2 -a 0 -i 5 -k MAC
r -t 1.180439065 -s 7 -d 7 -p ACK -e 5 -c 2 -a 0 -i 5 -k MAC
r -t 1.181078730 -s 6 -d 6 -p ack -e 60 -c 2 -a 0 -i 5 -k MAC
+ -t 1.182998730 -s 6 -d 7 -p tcp -e 107 -c 2 -a 0 -i 6 -k MAC 
- -t 1.182998730 -s 6 -d 7 -p tcp -e 107 -c 2 -a 0 -i 6 -k MAC
h -t 1.182998730 -s 6 -d 7 -p tcp -e 107 -c 2 -a 0 -i 6 -k MAC
+ -t 1.186807065 -s 7 -d 6 -p ACK -e 5 -c 2 -a 0 -i 6 -k MAC 
- -t 1.186807065 -s 7 -d 6 -p ACK -e 5 -c 2 -a 0 -i 6 -k MAC
h -t 1.186807065 -s 7 -d 6 -p ACK -e 5 -c 2 -a 0 -i 6 -k MAC
r -t 1.187159400 -s 6 -d 6 -p ACK -e 5 -c 2 -a 0 -i 6 -k MAC
r -t 1.187799065 -s 7 -d 7 -p tcp -e 100 -c 2 -a 0 -i 6 -k MAC
r -t 1.187824065 -s 7 -d 7 -p tcp -e 100 -c 2 -a 0 -i 6 -k AGT
+ -t 1.187824065 -s 7 -d -1 -p ack -e 40 -c 2 -a 0 -i 8 -k AGT 
- -t 1.187824065 -s 7 -d -1 -p ack -e 40 -c 2 -a 0 -i 8 -k AGT
h -t 1.187824065 -s 7 -d -1 -p ack -e 40 -c 2 -a 0 -i 8 -k AGT
+ -t 1.188439400 -s 6 -d 8 -p ack -e 67 -c 2 -a 0 -i 5 -k MAC 
- -t 1.188439400 -s 6 -d 8 -p ack -e 67 -c 2 -a 0 -i 5 -k MAC
h -t 1.188439400 -s 6 -d 8 -p ack -e 67 -c 2 -a 0 -i 5 -k MAC
+ -t 1.188448384 -s 8 -d 6 -p tcp -e 107 -c 2 -a 0 -i 7 -k MAC 
- -t 1.188448384 -s 8 -d 6 -p tcp -e 107 -c 2 -a 0 -i 7 -k MAC
h -t 1.188448384 -s 8 -d 6 -p tcp -e 107 -c 2 -a 0 -i 7 -k MAC
+ -t 1.192599400 -s 6 -d 8 -p ack -e 67 -c 2 -a 0 -i 5 -k MAC 
- -t 1.192599400 -s 6 -d 8 -p ack -e 67 -c 2 -a 0 -i 5 -k MAC
h -t 1.192599400 -s 6 -d 8 -p ack -e 67 -c 2 -a 0 -i 5 -k MAC
+ -t 1.195128016 -s 8 -d 6 -p ACK -e 5 -c 2 -a 0 -i 5 -k MAC 
- -t 1.195128016 -s 8 -d 6 -p ACK -e 5 -c 2 -a 0 -i 5 -k MAC
h -t 1.195128016 -s 8 -d 6 -p ACK -e 5 -c 2 -a 0 -i 5 -k MAC
r -t 1.195480631 -s 6 -d 6 -p ACK -e 5 -c 2 -a 0 -i 5 -k MAC
r -t 1.196120016 -s 8 -d 8 -p ack -e 60 -c 2 -a 0 -i 5 -k MAC
+ -t 1.197065065 -s 7 -d 6 -p ack -e 67 -c 2 -a 0 -i 8 -k MAC 
- -t 1.197065065 -s 7 -d 6 -p ack -e 67 -c 2 -a 0 -i 8 -k MAC
h -t 1.197065065 -s 7 -d 6 -p ack -e 67 -c 2 -a 0 -i 8 -k MAC
+ -t 1.197080016 -s 8 -d 6 -p tcp -e 107 -c 2 -a 0 -i 7 -k MAC 
- -t 1.197080016 -s 8 -d 6 -p tcp -e 107 -c 2 -a 0 -i 7 -k MAC
h -t 1.197080016 -s 8 -d 6 -p tcp -e 107 -c 2 -a 0 -i 7 -k MAC
+ -t 1.199593400 -s 6 -d 7 -p ACK -e 5 -c 2 -a 0 -i 8 -k MAC 
- -t 1.199593400 -s 6 -d 7 -p ACK -e 5 -c 2 -a 0 -i 8 -k MAC
h -t 1.199593400 -s 6 -d 7 -p ACK -e 5 -c 2 -a 0 -i 8 -k MAC
r -t 1.199945736 -s 7 -d 7 -p ACK -e 5 -c 2 -a 0 -i 8 -k MAC
r -t 1.200585400 -s 6 -d 6 -p ack -e 60 -c 2 -a 0 -i 8 -k MAC
+ -t 1.201915400 -s 6 -d 8 -p ack -e 67 -c 2 -a 0 -i 8 -k MAC 
- -t 1.201915400 -s 6 -d 8 -p ack -e 67 -c 2 -a 0 -i 8 -k MAC
h -t 1.201915400 -s 6 -d 8 -p ack -e 67 -c 2 -a 0 -i 8 -k MAC
+ -t 1.204444016 -s 8 -d 6 -p ACK -e 5 -c 2 -a 0 -i 8 -k MAC 
- -t 1.204444016 -s 8 -d 6 -p ACK -e 5 -c 2 -a 0 -i 8 -k MAC
h -t 1.204444016 -s 8 -d 6 -p ACK -e 5 -c 2 -a 0 -i 8 -k MAC
r -t 1.204796631 -s 6 -d 6 -p ACK -e 5 -c 2 -a 0 -i 8 -k MAC
r -t 1.205436016 -s 8 -d 8 -p ack -e 60 -c 2 -a 0 -i 8 -k MAC
+ -t 1.206716016 -s 8 -d 6 -p tcp -e 107 -c 2 -a 0 -i 7 -k MAC 
- -t 1.206716016 -s 8 -d 6 -p tcp -e 107 -c 2 -a 0 -i 7 -k MAC
h -t 1.206716016 -s 8 -d 6 -p tcp -e 107 -c 2 -a 0 -i 7 -k MAC
+ -t 1.210524631 -s 6 -d 8 -p ACK -e 5 -c 2 -a 0 -i 7 -k MAC 
- -t 1.210524631 -s 6 -d 8 -p ACK -e 5 -c 2 -a 0 -i 7 -k MAC
h -t 1.210524631 -s 6 -d 8 -p ACK -e 5 -c 2 -a 0 -i 7 -k MAC
r -t 1.210877246 -s 8 -d 8 -p ACK -e 5 -c 2 -a 0 -i 7 -k MAC
r -t 1.211516631 -s 6 -d 6 -p tcp -e 100 -c 2 -a 0 -i 7 -k MAC
+ -t 1.211517246 -s 8 -d 0 -p ack -e 67 -c 2 -a 0 -i 5 -k MAC 
- -t 1.211517246 -s 8 -d 0 -p ack -e 67 -c 2 -a 0 -i 5 -k MAC
h -t 1.211517246 -s 8 -d 0 -p ack -e 67 -c 2 -a 0 -i 5 -k MAC
+ -t 1.214045673 -s 0 -d 8 -p ACK -e 5 -c 2 -a 0 -i 5 -k MAC 
- -t 1.214045673 -s 0 -d 8 -p ACK -e 5 -c 2 -a 0 -i 5 -k MAC
h -t 1.214045673 -s 0 -d 8 -p ACK -e 5 -c 2 -a 0 -i 5 -k MAC
r -t 1.214398101 -s 8 -d 8 -p ACK -e 5 -c 2 -a 0 -i 5 -k MAC
r -t 1.215037673 -s 0 -d 0 -p ack -e 60 -c 2 -a 0 -i 5 -k MAC
r -t 1.215062673 -s 0 -d 0 -p ack -e 60 -c 2 -a 0 -i 5 -k AGT
+ -t 1.215062673 -s 0 -d -1 -p tcp -e 592 -c 2 -a 0 -i 9 -k AGT 
- -t 1.215062673 -s 0 -d -1 -p tcp -e 592 -c 2 -a 0 -i 9 -k AGT
h -t 1.215062673 -s 0 -d -1 -p tcp -e 592 -c 2 -a 0 -i 9 -k AGT
+ -t 1.215062673 -s 0 -d -1 -p tcp -e 592 -c 2 -a 0 -i 10 -k AGT 
- -t 1.215062673 -s 0 -d -1 -p tcp -e 592 -c 2 -a 0 -i 10 -k AGT
h -t 1.215062673 -s 0 -d -1 -p tcp -e 592 -c 2 -a 0 -i 10 -k AGT
+ -t 1.215678101 -s 8 -d 0 -p ack -e 67 -c 2 -a 0 -i 8 -k MAC 
- -t 1.215678101 -s 8 -d 0 -p ack -e 67 -c 2 -a 0 -i 8 -k MAC
h -t 1.215678101 -s 8 -d 0 -p ack -e 67 -c 2 -a 0 -i 8 -k MAC
+ -t 1.218206528 -s 0 -d 8 -p ACK -e 5 -c 2 -a 0 -i 8 -k MAC 
- -t 1.218206528 -s 0 -d 8 -p ACK -e 5 -c 2 -a 0 -i 8 -k MAC
h -t 1.218206528 -s 0 -d 8 -p ACK -e 5 -c 2 -a 0 -i 8 -k MAC
r -t 1.218558955 -s 8 -d 8 -p ACK -e 5 -c 2 -a 0 -i 8 -k MAC
r -t 1.219198528 -s 0 -d 0 -p ack -e 60 -c 2 -a 0 -i 8 -k MAC
r -t 1.219223528 -s 0 -d 0 -p ack -e 60 -c 2 -a 0 -i 8 -k AGT
+ -t 1.219223528 -s 0 -d -1 -p tcp -e 592 -c 2 -a 0 -i 11 -k AGT 
- -t 1.219223528 -s 0 -d -1 -p tcp -e 592 -c 2 -a 0 -i 11 -k AGT
h -t 1.219223528 -s 0 -d -1 -p tcp -e 592 -c 2 -a 0 -i 11 -k AGT
+ -t 1.219223528 -s 0 -d -1 -p tcp -e 592 -c 2 -a 0 -i 12 -k AGT 
- -t 1.219223528 -s 0 -d -1 -p tcp -e 592 -c 2 -a 0 -i 12 -k AGT
h -t 1.219223528 -s 0 -d -1 -p tcp -e 592 -c 2 -a 0 -i 12 -k AGT
+ -t 1.220798528 -s 0 -d 8 -p tcp -e 107 -c 2 -a 0 -i 9 -k MAC 
- -t 1.220798528 -s 0 -d 8 -p tcp -e 107 -c 2 -a 0 -i 9 -k MAC
h -t 1.220798528 -s 0 -d 8 -p tcp -e 107 -c 2 -a 0 -i 9 -k MAC
+ -t 1.224606955 -s 8 -d 0 -p ACK -e 5 -c 2 -a 0 -i 9 -k MAC 
- -t 1.224606955 -s 8 -d 0 -p ACK -e 5 -c 2 -a 0 -i 9 -k MAC
h -t 1.224606955 -s 8 -d 0 -p ACK -e 5 -c 2 -a 0 -i 9 -k MAC
r -t 1.224959383 -s 0 -d 0 -p ACK -e 5 -c 2 -a 0 -i 9 -k MAC
r -t 1.225598955 -s 8 -d 8 -p tcp -e 100 -c 2 -a 0 -i 9 -k MAC
+ -t 1.225919383 -s 0 -d 8 -p tcp -e 107 -c 2 -a 0 -i 10 -k MAC 
- -t 1.225919383 -s 0 -d 8 -p tcp -e 107 -c 2 -a 0 -i 10 -k MAC
h -t 1.225919383 -s 0 -d 8 -p tcp -e 107 -c 2 -a 0 -i 10 -k MAC
+ -t 1.229727810 -s 8 -d 0 -p ACK -e 5 -c 2 -a 0 -i 10 -k MAC 